7.36471	5.075	3.68864	20.6125	8.37895	4.79045
