6.83111	5.06018	3.73172	20.2458	8.45497	5.86553
