7.49428	5.05674	3.66082	20.4907	8.29054	4.51567
