3.02793	5.00047	3.96213	4.54483	8.37425	5.93217
