4.77995	5.01215	3.95515	11.0436	8.38637	5.91019
