7.29684	5.10775	3.6669	21.3682	8.43326	5.19802
