7.19153	5.08586	3.67173	21.5697	8.4821	5.68336
