7.31829	5.09705	3.68052	20.9224	8.4132	4.98132
