2.43876	4.99786	3.96642	2.99321	8.37455	5.95005
