6.8314	5.06019	3.7317	20.2457	8.45499	5.86558
