6.41299	5.0396	3.86329	18.7387	8.4237	5.89745
