1.84061	4.99633	3.97008	1.72881	8.37723	5.96815
