1.23485	4.99738	3.97005	0.784223	8.38497	5.97102
