3.6126	5.00372	3.95872	6.39444	8.37701	5.9204
