7.31803	5.09703	3.68042	20.9278	8.41321	4.9819
