7.29136	5.10625	3.66154	21.7547	8.46185	5.43459
