5.37272	5.01695	3.95382	13.8952	8.39283	5.90657
