4.19591	5.00771	3.95656	8.55591	8.38139	5.91394
