7.51838	5.05608	3.65263	20.5103	8.28341	4.47976
