         0 5.63773e-06
      0.01 3.74587e-06
      0.02 2.14217e-06
      0.03 1.40379e-06
      0.04 9.48901e-07
      0.05 7.05111e-07
      0.06 5.71985e-07
      0.07 4.38683e-07
      0.08 3.3805e-07
      0.09 2.78997e-07
       0.1 2.22124e-07
      0.11 1.83115e-07
      0.12 1.52803e-07
      0.13 1.30427e-07
      0.14 1.13568e-07
      0.15 9.80655e-08
      0.16 8.74003e-08
      0.17 8.24866e-08
      0.18 7.61904e-08
      0.19 7.13688e-08
       0.2 6.68747e-08
      0.21 6.81189e-08
      0.22 5.78987e-08
      0.23  4.754e-08
      0.24 3.9465e-08
      0.25 2.90644e-08
      0.26 1.92857e-08
      0.27 9.01879e-09
      0.28 4.46839e-09
      0.29 3.89528e-09
       0.3 5.38113e-09
      0.31 3.91836e-09
      0.32 6.25271e-09
      0.33 9.46611e-09
      0.34 1.32002e-08
      0.35 1.41616e-08
      0.36 1.15396e-08
      0.37 7.70741e-09
      0.38 2.57546e-09
      0.39 -2.14532e-09
       0.4 -5.14635e-09
      0.41 -7.78873e-09
      0.42 -1.0153e-08
      0.43 -1.28326e-08
      0.44 -1.55969e-08
      0.45 -2.19047e-08
      0.46 -2.36557e-08
      0.47 -2.74219e-08
      0.48 -2.9209e-08
      0.49 -3.25739e-08
       0.5 -3.50432e-08
      0.51 -3.96343e-08
      0.52 -4.56547e-08
      0.53 -5.1369e-08
      0.54 -5.57919e-08
      0.55 -5.87955e-08
      0.56 -5.95544e-08
      0.57 -6.2575e-08
      0.58 -6.24186e-08
      0.59 -6.23976e-08
       0.6 -6.85647e-08
      0.61 -6.9823e-08
      0.62 -7.39665e-08
      0.63 -7.89698e-08
      0.64 -8.20311e-08
      0.65 -8.34534e-08
      0.66 -8.60881e-08
      0.67 -8.63329e-08
      0.68 -9.02514e-08
      0.69 -9.25973e-08
       0.7 -8.75948e-08
      0.71 -8.84453e-08
      0.72 -8.16115e-08
      0.73 -7.68299e-08
      0.74 -7.04577e-08
      0.75 -6.59281e-08
      0.76 -6.09022e-08
      0.77 -5.70574e-08
      0.78 -5.477e-08
      0.79 -5.41302e-08
       0.8 -4.97159e-08
      0.81 -4.91145e-08
      0.82 -3.67837e-08
      0.83 -1.61341e-08
      0.84 -1.72499e-08
      0.85 -1.11721e-08
      0.86 -1.19611e-08
      0.87 4.95123e-09
      0.88 6.01048e-08
      0.89 1.59556e-07
       0.9 2.98801e-07
      0.91 4.4155e-07
      0.92 6.0679e-07
      0.93 8.26861e-07
      0.94 9.33181e-07
      0.95 1.2637e-06
      0.96 3.38173e-06
      0.97          0
      0.98          0
      0.99          0
