2.75117e-11	1.73725e-21
0	0
0	0
2.75117e-11	1.73725e-21
0	0
2.75117e-11	1.73725e-21
