1.84056	4.99632	3.97007	1.72881	8.37723	5.96811
