7.51945	5.05618	3.65216	20.507	8.2831	4.47905
