5.37296	5.01696	3.95383	13.8953	8.39284	5.9066
