7.36561	5.07467	3.68866	20.6091	8.37818	4.78772
