3.61247	5.00372	3.95871	6.39441	8.37701	5.92037
