0.630242	5.00104	3.96782	0.209571	8.40466	5.9611
