5.9461	5.02315	3.94457	16.8346	8.40271	5.90279
