7.36559	5.07454	3.68863	20.6132	8.37806	4.78713
