7.43195	5.05999	3.68005	20.4843	8.3236	4.62589
