7.36429	5.07502	3.6886	20.6181	8.37916	4.79108
