5.94582	5.02314	3.94457	16.8344	8.40271	5.90276
