4.19574	5.0077	3.95656	8.55585	8.38139	5.91391
