7.29664	5.10769	3.66684	21.3721	8.4333	5.1985
