7.52075	5.05601	3.65183	20.5126	8.28285	4.47641
