7.29108	5.1062	3.66156	21.7563	8.4619	5.43493
