0.630233	5.00103	3.96781	0.209572	8.40466	5.96106
