4.77975	5.01215	3.95514	11.0435	8.38637	5.91016
