1.23482	4.99738	3.97005	0.784227	8.38497	5.97098
