7.52019	5.05616	3.6519	20.5078	8.28292	4.478
