x	y	pdf
2.23386e-07	2.57589e-16	0
2.23386e-07	3.6921e-16	0
2.23386e-07	5.29199e-16	0
2.23386e-07	7.58517e-16	0
2.23386e-07	1.0872e-15	0
2.23386e-07	1.55832e-15	0
2.23386e-07	2.23359e-15	0
2.23386e-07	3.20147e-15	0
2.23386e-07	4.58876e-15	0
2.23386e-07	6.57721e-15	0
2.23386e-07	9.4273e-15	0
2.23386e-07	1.35124e-14	0
2.23386e-07	1.93678e-14	0
2.23386e-07	2.77604e-14	0
2.23386e-07	3.97898e-14	0
2.23386e-07	5.70319e-14	0
2.23386e-07	8.17455e-14	0
2.23386e-07	1.17168e-13	0
2.23386e-07	1.67941e-13	0
2.23386e-07	2.40714e-13	0
2.23386e-07	3.45023e-13	0
2.23386e-07	4.94531e-13	0
2.23386e-07	7.08826e-13	0
2.23386e-07	1.01598e-12	0
2.23386e-07	1.45624e-12	0
2.23386e-07	2.08727e-12	0
2.23386e-07	2.99174e-12	0
2.23386e-07	4.28815e-12	0
2.23386e-07	6.14633e-12	0
2.23386e-07	8.80971e-12	0
2.23386e-07	1.26272e-11	0
2.23386e-07	1.8099e-11	0
2.23386e-07	2.59418e-11	0
2.23386e-07	3.71831e-11	0
2.23386e-07	5.32957e-11	0
2.23386e-07	7.63902e-11	0
2.23386e-07	1.09492e-10	0
2.23386e-07	1.56939e-10	0
2.23386e-07	2.24945e-10	0
2.23386e-07	3.2242e-10	0
2.23386e-07	4.62134e-10	0
2.23386e-07	6.6239e-10	0
2.23386e-07	9.49423e-10	0
2.23386e-07	1.36084e-09	0
2.23386e-07	1.95053e-09	0
2.23386e-07	2.79575e-09	0
2.23386e-07	4.00723e-09	0
2.23386e-07	5.74368e-09	0
2.23386e-07	8.23258e-09	0
2.23386e-07	1.18e-08	0
3.20186e-07	2.57589e-16	0
3.20186e-07	3.6921e-16	0
3.20186e-07	5.29199e-16	0
3.20186e-07	7.58517e-16	0
3.20186e-07	1.0872e-15	0
3.20186e-07	1.55832e-15	0
3.20186e-07	2.23359e-15	0
3.20186e-07	3.20147e-15	0
3.20186e-07	4.58876e-15	0
3.20186e-07	6.57721e-15	0
3.20186e-07	9.4273e-15	0
3.20186e-07	1.35124e-14	0
3.20186e-07	1.93678e-14	0
3.20186e-07	2.77604e-14	0
3.20186e-07	3.97898e-14	0
3.20186e-07	5.70319e-14	1.49787e+17
3.20186e-07	8.17455e-14	0
3.20186e-07	1.17168e-13	0
3.20186e-07	1.67941e-13	0
3.20186e-07	2.40714e-13	0
3.20186e-07	3.45023e-13	0
3.20186e-07	4.94531e-13	0
3.20186e-07	7.08826e-13	0
3.20186e-07	1.01598e-12	0
3.20186e-07	1.45624e-12	0
3.20186e-07	2.08727e-12	0
3.20186e-07	2.99174e-12	0
3.20186e-07	4.28815e-12	0
3.20186e-07	6.14633e-12	0
3.20186e-07	8.80971e-12	0
3.20186e-07	1.26272e-11	0
3.20186e-07	1.8099e-11	0
3.20186e-07	2.59418e-11	0
3.20186e-07	3.71831e-11	0
3.20186e-07	5.32957e-11	0
3.20186e-07	7.63902e-11	0
3.20186e-07	1.09492e-10	0
3.20186e-07	1.56939e-10	0
3.20186e-07	2.24945e-10	0
3.20186e-07	3.2242e-10	0
3.20186e-07	4.62134e-10	0
3.20186e-07	6.6239e-10	0
3.20186e-07	9.49423e-10	0
3.20186e-07	1.36084e-09	0
3.20186e-07	1.95053e-09	0
3.20186e-07	2.79575e-09	0
3.20186e-07	4.00723e-09	0
3.20186e-07	5.74368e-09	0
3.20186e-07	8.23258e-09	0
3.20186e-07	1.18e-08	0
4.58933e-07	2.57589e-16	0
4.58933e-07	3.6921e-16	0
4.58933e-07	5.29199e-16	0
4.58933e-07	7.58517e-16	0
4.58933e-07	1.0872e-15	0
4.58933e-07	1.55832e-15	0
4.58933e-07	2.23359e-15	0
4.58933e-07	3.20147e-15	0
4.58933e-07	4.58876e-15	0
4.58933e-07	6.57721e-15	0
4.58933e-07	9.4273e-15	0
4.58933e-07	1.35124e-14	0
4.58933e-07	1.93678e-14	0
4.58933e-07	2.77604e-14	0
4.58933e-07	3.97898e-14	0
4.58933e-07	5.70319e-14	1.30629e+18
4.58933e-07	8.17455e-14	0
4.58933e-07	1.17168e-13	0
4.58933e-07	1.67941e-13	0
4.58933e-07	2.40714e-13	0
4.58933e-07	3.45023e-13	0
4.58933e-07	4.94531e-13	0
4.58933e-07	7.08826e-13	0
4.58933e-07	1.01598e-12	0
4.58933e-07	1.45624e-12	0
4.58933e-07	2.08727e-12	0
4.58933e-07	2.99174e-12	0
4.58933e-07	4.28815e-12	0
4.58933e-07	6.14633e-12	0
4.58933e-07	8.80971e-12	0
4.58933e-07	1.26272e-11	0
4.58933e-07	1.8099e-11	0
4.58933e-07	2.59418e-11	0
4.58933e-07	3.71831e-11	0
4.58933e-07	5.32957e-11	0
4.58933e-07	7.63902e-11	0
4.58933e-07	1.09492e-10	0
4.58933e-07	1.56939e-10	0
4.58933e-07	2.24945e-10	0
4.58933e-07	3.2242e-10	0
4.58933e-07	4.62134e-10	0
4.58933e-07	6.6239e-10	0
4.58933e-07	9.49423e-10	0
4.58933e-07	1.36084e-09	0
4.58933e-07	1.95053e-09	0
4.58933e-07	2.79575e-09	0
4.58933e-07	4.00723e-09	0
4.58933e-07	5.74368e-09	0
4.58933e-07	8.23258e-09	0
4.58933e-07	1.18e-08	0
6.57801e-07	2.57589e-16	0
6.57801e-07	3.6921e-16	0
6.57801e-07	5.29199e-16	0
6.57801e-07	7.58517e-16	0
6.57801e-07	1.0872e-15	0
6.57801e-07	1.55832e-15	0
6.57801e-07	2.23359e-15	0
6.57801e-07	3.20147e-15	0
6.57801e-07	4.58876e-15	0
6.57801e-07	6.57721e-15	0
6.57801e-07	9.4273e-15	0
6.57801e-07	1.35124e-14	0
6.57801e-07	1.93678e-14	0
6.57801e-07	2.77604e-14	0
6.57801e-07	3.97898e-14	0
6.57801e-07	5.70319e-14	1.05719e+18
6.57801e-07	8.17455e-14	0
6.57801e-07	1.17168e-13	0
6.57801e-07	1.67941e-13	0
6.57801e-07	2.40714e-13	0
6.57801e-07	3.45023e-13	0
6.57801e-07	4.94531e-13	0
6.57801e-07	7.08826e-13	0
6.57801e-07	1.01598e-12	0
6.57801e-07	1.45624e-12	0
6.57801e-07	2.08727e-12	0
6.57801e-07	2.99174e-12	0
6.57801e-07	4.28815e-12	0
6.57801e-07	6.14633e-12	0
6.57801e-07	8.80971e-12	0
6.57801e-07	1.26272e-11	0
6.57801e-07	1.8099e-11	0
6.57801e-07	2.59418e-11	0
6.57801e-07	3.71831e-11	0
6.57801e-07	5.32957e-11	0
6.57801e-07	7.63902e-11	0
6.57801e-07	1.09492e-10	0
6.57801e-07	1.56939e-10	0
6.57801e-07	2.24945e-10	0
6.57801e-07	3.2242e-10	0
6.57801e-07	4.62134e-10	0
6.57801e-07	6.6239e-10	0
6.57801e-07	9.49423e-10	0
6.57801e-07	1.36084e-09	0
6.57801e-07	1.95053e-09	0
6.57801e-07	2.79575e-09	0
6.57801e-07	4.00723e-09	0
6.57801e-07	5.74368e-09	0
6.57801e-07	8.23258e-09	0
6.57801e-07	1.18e-08	0
9.42846e-07	2.57589e-16	0
9.42846e-07	3.6921e-16	0
9.42846e-07	5.29199e-16	0
9.42846e-07	7.58517e-16	0
9.42846e-07	1.0872e-15	0
9.42846e-07	1.55832e-15	0
9.42846e-07	2.23359e-15	0
9.42846e-07	3.20147e-15	0
9.42846e-07	4.58876e-15	0
9.42846e-07	6.57721e-15	0
9.42846e-07	9.4273e-15	0
9.42846e-07	1.35124e-14	0
9.42846e-07	1.93678e-14	0
9.42846e-07	2.77604e-14	0
9.42846e-07	3.97898e-14	0
9.42846e-07	5.70319e-14	9.15608e+17
9.42846e-07	8.17455e-14	0
9.42846e-07	1.17168e-13	0
9.42846e-07	1.67941e-13	0
9.42846e-07	2.40714e-13	0
9.42846e-07	3.45023e-13	0
9.42846e-07	4.94531e-13	0
9.42846e-07	7.08826e-13	0
9.42846e-07	1.01598e-12	0
9.42846e-07	1.45624e-12	0
9.42846e-07	2.08727e-12	0
9.42846e-07	2.99174e-12	0
9.42846e-07	4.28815e-12	0
9.42846e-07	6.14633e-12	0
9.42846e-07	8.80971e-12	0
9.42846e-07	1.26272e-11	0
9.42846e-07	1.8099e-11	0
9.42846e-07	2.59418e-11	0
9.42846e-07	3.71831e-11	0
9.42846e-07	5.32957e-11	0
9.42846e-07	7.63902e-11	0
9.42846e-07	1.09492e-10	0
9.42846e-07	1.56939e-10	0
9.42846e-07	2.24945e-10	0
9.42846e-07	3.2242e-10	0
9.42846e-07	4.62134e-10	0
9.42846e-07	6.6239e-10	0
9.42846e-07	9.49423e-10	0
9.42846e-07	1.36084e-09	0
9.42846e-07	1.95053e-09	0
9.42846e-07	2.79575e-09	0
9.42846e-07	4.00723e-09	0
9.42846e-07	5.74368e-09	0
9.42846e-07	8.23258e-09	0
9.42846e-07	1.18e-08	0
1.35141e-06	2.57589e-16	0
1.35141e-06	3.6921e-16	0
1.35141e-06	5.29199e-16	0
1.35141e-06	7.58517e-16	0
1.35141e-06	1.0872e-15	0
1.35141e-06	1.55832e-15	0
1.35141e-06	2.23359e-15	0
1.35141e-06	3.20147e-15	0
1.35141e-06	4.58876e-15	0
1.35141e-06	6.57721e-15	0
1.35141e-06	9.4273e-15	0
1.35141e-06	1.35124e-14	0
1.35141e-06	1.93678e-14	0
1.35141e-06	2.77604e-14	0
1.35141e-06	3.97898e-14	0
1.35141e-06	5.70319e-14	7.2752e+17
1.35141e-06	8.17455e-14	0
1.35141e-06	1.17168e-13	0
1.35141e-06	1.67941e-13	0
1.35141e-06	2.40714e-13	0
1.35141e-06	3.45023e-13	0
1.35141e-06	4.94531e-13	0
1.35141e-06	7.08826e-13	0
1.35141e-06	1.01598e-12	0
1.35141e-06	1.45624e-12	0
1.35141e-06	2.08727e-12	0
1.35141e-06	2.99174e-12	0
1.35141e-06	4.28815e-12	0
1.35141e-06	6.14633e-12	0
1.35141e-06	8.80971e-12	0
1.35141e-06	1.26272e-11	0
1.35141e-06	1.8099e-11	0
1.35141e-06	2.59418e-11	0
1.35141e-06	3.71831e-11	0
1.35141e-06	5.32957e-11	0
1.35141e-06	7.63902e-11	0
1.35141e-06	1.09492e-10	0
1.35141e-06	1.56939e-10	0
1.35141e-06	2.24945e-10	0
1.35141e-06	3.2242e-10	0
1.35141e-06	4.62134e-10	0
1.35141e-06	6.6239e-10	0
1.35141e-06	9.49423e-10	0
1.35141e-06	1.36084e-09	0
1.35141e-06	1.95053e-09	0
1.35141e-06	2.79575e-09	0
1.35141e-06	4.00723e-09	0
1.35141e-06	5.74368e-09	0
1.35141e-06	8.23258e-09	0
1.35141e-06	1.18e-08	0
1.93701e-06	2.57589e-16	0
1.93701e-06	3.6921e-16	0
1.93701e-06	5.29199e-16	0
1.93701e-06	7.58517e-16	0
1.93701e-06	1.0872e-15	0
1.93701e-06	1.55832e-15	0
1.93701e-06	2.23359e-15	0
1.93701e-06	3.20147e-15	0
1.93701e-06	4.58876e-15	0
1.93701e-06	6.57721e-15	0
1.93701e-06	9.4273e-15	0
1.93701e-06	1.35124e-14	0
1.93701e-06	1.93678e-14	0
1.93701e-06	2.77604e-14	0
1.93701e-06	3.97898e-14	0
1.93701e-06	5.70319e-14	1.43606e+18
1.93701e-06	8.17455e-14	0
1.93701e-06	1.17168e-13	0
1.93701e-06	1.67941e-13	0
1.93701e-06	2.40714e-13	0
1.93701e-06	3.45023e-13	0
1.93701e-06	4.94531e-13	0
1.93701e-06	7.08826e-13	0
1.93701e-06	1.01598e-12	0
1.93701e-06	1.45624e-12	0
1.93701e-06	2.08727e-12	0
1.93701e-06	2.99174e-12	0
1.93701e-06	4.28815e-12	0
1.93701e-06	6.14633e-12	0
1.93701e-06	8.80971e-12	0
1.93701e-06	1.26272e-11	0
1.93701e-06	1.8099e-11	0
1.93701e-06	2.59418e-11	0
1.93701e-06	3.71831e-11	0
1.93701e-06	5.32957e-11	0
1.93701e-06	7.63902e-11	0
1.93701e-06	1.09492e-10	0
1.93701e-06	1.56939e-10	0
1.93701e-06	2.24945e-10	0
1.93701e-06	3.2242e-10	0
1.93701e-06	4.62134e-10	0
1.93701e-06	6.6239e-10	0
1.93701e-06	9.49423e-10	0
1.93701e-06	1.36084e-09	0
1.93701e-06	1.95053e-09	0
1.93701e-06	2.79575e-09	0
1.93701e-06	4.00723e-09	0
1.93701e-06	5.74368e-09	0
1.93701e-06	8.23258e-09	0
1.93701e-06	1.18e-08	0
2.77638e-06	2.57589e-16	0
2.77638e-06	3.6921e-16	0
2.77638e-06	5.29199e-16	0
2.77638e-06	7.58517e-16	0
2.77638e-06	1.0872e-15	0
2.77638e-06	1.55832e-15	0
2.77638e-06	2.23359e-15	0
2.77638e-06	3.20147e-15	0
2.77638e-06	4.58876e-15	0
2.77638e-06	6.57721e-15	0
2.77638e-06	9.4273e-15	0
2.77638e-06	1.35124e-14	0
2.77638e-06	1.93678e-14	0
2.77638e-06	2.77604e-14	0
2.77638e-06	3.97898e-14	0
2.77638e-06	5.70319e-14	2.17656e+18
2.77638e-06	8.17455e-14	0
2.77638e-06	1.17168e-13	0
2.77638e-06	1.67941e-13	0
2.77638e-06	2.40714e-13	0
2.77638e-06	3.45023e-13	0
2.77638e-06	4.94531e-13	0
2.77638e-06	7.08826e-13	0
2.77638e-06	1.01598e-12	0
2.77638e-06	1.45624e-12	0
2.77638e-06	2.08727e-12	0
2.77638e-06	2.99174e-12	0
2.77638e-06	4.28815e-12	0
2.77638e-06	6.14633e-12	0
2.77638e-06	8.80971e-12	0
2.77638e-06	1.26272e-11	0
2.77638e-06	1.8099e-11	0
2.77638e-06	2.59418e-11	0
2.77638e-06	3.71831e-11	0
2.77638e-06	5.32957e-11	0
2.77638e-06	7.63902e-11	0
2.77638e-06	1.09492e-10	0
2.77638e-06	1.56939e-10	0
2.77638e-06	2.24945e-10	0
2.77638e-06	3.2242e-10	0
2.77638e-06	4.62134e-10	0
2.77638e-06	6.6239e-10	0
2.77638e-06	9.49423e-10	0
2.77638e-06	1.36084e-09	0
2.77638e-06	1.95053e-09	0
2.77638e-06	2.79575e-09	0
2.77638e-06	4.00723e-09	0
2.77638e-06	5.74368e-09	0
2.77638e-06	8.23258e-09	0
2.77638e-06	1.18e-08	0
3.97947e-06	2.57589e-16	0
3.97947e-06	3.6921e-16	0
3.97947e-06	5.29199e-16	0
3.97947e-06	7.58517e-16	0
3.97947e-06	1.0872e-15	0
3.97947e-06	1.55832e-15	0
3.97947e-06	2.23359e-15	0
3.97947e-06	3.20147e-15	0
3.97947e-06	4.58876e-15	0
3.97947e-06	6.57721e-15	0
3.97947e-06	9.4273e-15	0
3.97947e-06	1.35124e-14	0
3.97947e-06	1.93678e-14	0
3.97947e-06	2.77604e-14	0
3.97947e-06	3.97898e-14	0
3.97947e-06	5.70319e-14	2.14523e+18
3.97947e-06	8.17455e-14	0
3.97947e-06	1.17168e-13	0
3.97947e-06	1.67941e-13	0
3.97947e-06	2.40714e-13	0
3.97947e-06	3.45023e-13	0
3.97947e-06	4.94531e-13	0
3.97947e-06	7.08826e-13	0
3.97947e-06	1.01598e-12	0
3.97947e-06	1.45624e-12	0
3.97947e-06	2.08727e-12	0
3.97947e-06	2.99174e-12	0
3.97947e-06	4.28815e-12	0
3.97947e-06	6.14633e-12	0
3.97947e-06	8.80971e-12	0
3.97947e-06	1.26272e-11	0
3.97947e-06	1.8099e-11	0
3.97947e-06	2.59418e-11	0
3.97947e-06	3.71831e-11	0
3.97947e-06	5.32957e-11	0
3.97947e-06	7.63902e-11	0
3.97947e-06	1.09492e-10	0
3.97947e-06	1.56939e-10	0
3.97947e-06	2.24945e-10	0
3.97947e-06	3.2242e-10	0
3.97947e-06	4.62134e-10	0
3.97947e-06	6.6239e-10	0
3.97947e-06	9.49423e-10	0
3.97947e-06	1.36084e-09	0
3.97947e-06	1.95053e-09	0
3.97947e-06	2.79575e-09	0
3.97947e-06	4.00723e-09	0
3.97947e-06	5.74368e-09	0
3.97947e-06	8.23258e-09	0
3.97947e-06	1.18e-08	0
5.70389e-06	2.57589e-16	0
5.70389e-06	3.6921e-16	0
5.70389e-06	5.29199e-16	0
5.70389e-06	7.58517e-16	0
5.70389e-06	1.0872e-15	0
5.70389e-06	1.55832e-15	0
5.70389e-06	2.23359e-15	0
5.70389e-06	3.20147e-15	0
5.70389e-06	4.58876e-15	0
5.70389e-06	6.57721e-15	0
5.70389e-06	9.4273e-15	0
5.70389e-06	1.35124e-14	0
5.70389e-06	1.93678e-14	0
5.70389e-06	2.77604e-14	0
5.70389e-06	3.97898e-14	0
5.70389e-06	5.70319e-14	1.19944e+19
5.70389e-06	8.17455e-14	0
5.70389e-06	1.17168e-13	0
5.70389e-06	1.67941e-13	0
5.70389e-06	2.40714e-13	0
5.70389e-06	3.45023e-13	0
5.70389e-06	4.94531e-13	0
5.70389e-06	7.08826e-13	0
5.70389e-06	1.01598e-12	0
5.70389e-06	1.45624e-12	0
5.70389e-06	2.08727e-12	0
5.70389e-06	2.99174e-12	0
5.70389e-06	4.28815e-12	0
5.70389e-06	6.14633e-12	0
5.70389e-06	8.80971e-12	0
5.70389e-06	1.26272e-11	0
5.70389e-06	1.8099e-11	0
5.70389e-06	2.59418e-11	0
5.70389e-06	3.71831e-11	0
5.70389e-06	5.32957e-11	0
5.70389e-06	7.63902e-11	0
5.70389e-06	1.09492e-10	0
5.70389e-06	1.56939e-10	0
5.70389e-06	2.24945e-10	0
5.70389e-06	3.2242e-10	0
5.70389e-06	4.62134e-10	0
5.70389e-06	6.6239e-10	0
5.70389e-06	9.49423e-10	0
5.70389e-06	1.36084e-09	0
5.70389e-06	1.95053e-09	0
5.70389e-06	2.79575e-09	0
5.70389e-06	4.00723e-09	0
5.70389e-06	5.74368e-09	0
5.70389e-06	8.23258e-09	0
5.70389e-06	1.18e-08	0
8.17555e-06	2.57589e-16	0
8.17555e-06	3.6921e-16	0
8.17555e-06	5.29199e-16	0
8.17555e-06	7.58517e-16	0
8.17555e-06	1.0872e-15	0
8.17555e-06	1.55832e-15	0
8.17555e-06	2.23359e-15	0
8.17555e-06	3.20147e-15	0
8.17555e-06	4.58876e-15	0
8.17555e-06	6.57721e-15	0
8.17555e-06	9.4273e-15	0
8.17555e-06	1.35124e-14	0
8.17555e-06	1.93678e-14	0
8.17555e-06	2.77604e-14	0
8.17555e-06	3.97898e-14	0
8.17555e-06	5.70319e-14	1.48739e+19
8.17555e-06	8.17455e-14	0
8.17555e-06	1.17168e-13	0
8.17555e-06	1.67941e-13	0
8.17555e-06	2.40714e-13	0
8.17555e-06	3.45023e-13	0
8.17555e-06	4.94531e-13	0
8.17555e-06	7.08826e-13	0
8.17555e-06	1.01598e-12	0
8.17555e-06	1.45624e-12	0
8.17555e-06	2.08727e-12	0
8.17555e-06	2.99174e-12	0
8.17555e-06	4.28815e-12	0
8.17555e-06	6.14633e-12	0
8.17555e-06	8.80971e-12	0
8.17555e-06	1.26272e-11	0
8.17555e-06	1.8099e-11	0
8.17555e-06	2.59418e-11	0
8.17555e-06	3.71831e-11	0
8.17555e-06	5.32957e-11	0
8.17555e-06	7.63902e-11	0
8.17555e-06	1.09492e-10	0
8.17555e-06	1.56939e-10	0
8.17555e-06	2.24945e-10	0
8.17555e-06	3.2242e-10	0
8.17555e-06	4.62134e-10	0
8.17555e-06	6.6239e-10	0
8.17555e-06	9.49423e-10	0
8.17555e-06	1.36084e-09	0
8.17555e-06	1.95053e-09	0
8.17555e-06	2.79575e-09	0
8.17555e-06	4.00723e-09	0
8.17555e-06	5.74368e-09	0
8.17555e-06	8.23258e-09	0
8.17555e-06	1.18e-08	0
1.17183e-05	2.57589e-16	0
1.17183e-05	3.6921e-16	0
1.17183e-05	5.29199e-16	0
1.17183e-05	7.58517e-16	0
1.17183e-05	1.0872e-15	0
1.17183e-05	1.55832e-15	0
1.17183e-05	2.23359e-15	0
1.17183e-05	3.20147e-15	0
1.17183e-05	4.58876e-15	0
1.17183e-05	6.57721e-15	0
1.17183e-05	9.4273e-15	0
1.17183e-05	1.35124e-14	0
1.17183e-05	1.93678e-14	0
1.17183e-05	2.77604e-14	0
1.17183e-05	3.97898e-14	0
1.17183e-05	5.70319e-14	2.88396e+19
1.17183e-05	8.17455e-14	0
1.17183e-05	1.17168e-13	0
1.17183e-05	1.67941e-13	0
1.17183e-05	2.40714e-13	0
1.17183e-05	3.45023e-13	0
1.17183e-05	4.94531e-13	0
1.17183e-05	7.08826e-13	0
1.17183e-05	1.01598e-12	0
1.17183e-05	1.45624e-12	0
1.17183e-05	2.08727e-12	0
1.17183e-05	2.99174e-12	0
1.17183e-05	4.28815e-12	0
1.17183e-05	6.14633e-12	0
1.17183e-05	8.80971e-12	0
1.17183e-05	1.26272e-11	0
1.17183e-05	1.8099e-11	0
1.17183e-05	2.59418e-11	0
1.17183e-05	3.71831e-11	0
1.17183e-05	5.32957e-11	0
1.17183e-05	7.63902e-11	0
1.17183e-05	1.09492e-10	0
1.17183e-05	1.56939e-10	0
1.17183e-05	2.24945e-10	0
1.17183e-05	3.2242e-10	0
1.17183e-05	4.62134e-10	0
1.17183e-05	6.6239e-10	0
1.17183e-05	9.49423e-10	0
1.17183e-05	1.36084e-09	0
1.17183e-05	1.95053e-09	0
1.17183e-05	2.79575e-09	0
1.17183e-05	4.00723e-09	0
1.17183e-05	5.74368e-09	0
1.17183e-05	8.23258e-09	0
1.17183e-05	1.18e-08	9.89056e+09
1.67961e-05	2.57589e-16	0
1.67961e-05	3.6921e-16	0
1.67961e-05	5.29199e-16	0
1.67961e-05	7.58517e-16	0
1.67961e-05	1.0872e-15	0
1.67961e-05	1.55832e-15	0
1.67961e-05	2.23359e-15	0
1.67961e-05	3.20147e-15	0
1.67961e-05	4.58876e-15	0
1.67961e-05	6.57721e-15	0
1.67961e-05	9.4273e-15	0
1.67961e-05	1.35124e-14	0
1.67961e-05	1.93678e-14	0
1.67961e-05	2.77604e-14	0
1.67961e-05	3.97898e-14	0
1.67961e-05	5.70319e-14	1.52793e+19
1.67961e-05	8.17455e-14	0
1.67961e-05	1.17168e-13	0
1.67961e-05	1.67941e-13	0
1.67961e-05	2.40714e-13	0
1.67961e-05	3.45023e-13	0
1.67961e-05	4.94531e-13	0
1.67961e-05	7.08826e-13	0
1.67961e-05	1.01598e-12	0
1.67961e-05	1.45624e-12	0
1.67961e-05	2.08727e-12	0
1.67961e-05	2.99174e-12	0
1.67961e-05	4.28815e-12	1.89883e+13
1.67961e-05	6.14633e-12	7.94863e+13
1.67961e-05	8.80971e-12	0
1.67961e-05	1.26272e-11	0
1.67961e-05	1.8099e-11	0
1.67961e-05	2.59418e-11	6.2775e+12
1.67961e-05	3.71831e-11	0
1.67961e-05	5.32957e-11	0
1.67961e-05	7.63902e-11	0
1.67961e-05	1.09492e-10	0
1.67961e-05	1.56939e-10	0
1.67961e-05	2.24945e-10	0
1.67961e-05	3.2242e-10	0
1.67961e-05	4.62134e-10	0
1.67961e-05	6.6239e-10	0
1.67961e-05	9.49423e-10	0
1.67961e-05	1.36084e-09	0
1.67961e-05	1.95053e-09	0
1.67961e-05	2.79575e-09	0
1.67961e-05	4.00723e-09	0
1.67961e-05	5.74368e-09	0
1.67961e-05	8.23258e-09	0
1.67961e-05	1.18e-08	6.90041e+09
2.40744e-05	2.57589e-16	0
2.40744e-05	3.6921e-16	0
2.40744e-05	5.29199e-16	0
2.40744e-05	7.58517e-16	0
2.40744e-05	1.0872e-15	0
2.40744e-05	1.55832e-15	0
2.40744e-05	2.23359e-15	0
2.40744e-05	3.20147e-15	0
2.40744e-05	4.58876e-15	0
2.40744e-05	6.57721e-15	0
2.40744e-05	9.4273e-15	0
2.40744e-05	1.35124e-14	0
2.40744e-05	1.93678e-14	0
2.40744e-05	2.77604e-14	0
2.40744e-05	3.97898e-14	0
2.40744e-05	5.70319e-14	9.23463e+18
2.40744e-05	8.17455e-14	0
2.40744e-05	1.17168e-13	0
2.40744e-05	1.67941e-13	0
2.40744e-05	2.40714e-13	0
2.40744e-05	3.45023e-13	0
2.40744e-05	4.94531e-13	0
2.40744e-05	7.08826e-13	0
2.40744e-05	1.01598e-12	0
2.40744e-05	1.45624e-12	0
2.40744e-05	2.08727e-12	0
2.40744e-05	2.99174e-12	0
2.40744e-05	4.28815e-12	1.32477e+13
2.40744e-05	6.14633e-12	1.38639e+14
2.40744e-05	8.80971e-12	0
2.40744e-05	1.26272e-11	0
2.40744e-05	1.8099e-11	0
2.40744e-05	2.59418e-11	8.75933e+12
2.40744e-05	3.71831e-11	0
2.40744e-05	5.32957e-11	0
2.40744e-05	7.63902e-11	0
2.40744e-05	1.09492e-10	0
2.40744e-05	1.56939e-10	0
2.40744e-05	2.24945e-10	7.57628e+11
2.40744e-05	3.2242e-10	0
2.40744e-05	4.62134e-10	0
2.40744e-05	6.6239e-10	0
2.40744e-05	9.49423e-10	0
2.40744e-05	1.36084e-09	0
2.40744e-05	1.95053e-09	0
2.40744e-05	2.79575e-09	0
2.40744e-05	4.00723e-09	0
2.40744e-05	5.74368e-09	0
2.40744e-05	8.23258e-09	0
2.40744e-05	1.18e-08	4.81425e+09
3.45065e-05	2.57589e-16	0
3.45065e-05	3.6921e-16	0
3.45065e-05	5.29199e-16	0
3.45065e-05	7.58517e-16	0
3.45065e-05	1.0872e-15	0
3.45065e-05	1.55832e-15	0
3.45065e-05	2.23359e-15	0
3.45065e-05	3.20147e-15	0
3.45065e-05	4.58876e-15	0
3.45065e-05	6.57721e-15	0
3.45065e-05	9.4273e-15	0
3.45065e-05	1.35124e-14	0
3.45065e-05	1.93678e-14	0
3.45065e-05	2.77604e-14	0
3.45065e-05	3.97898e-14	0
3.45065e-05	5.70319e-14	5.01816e+18
3.45065e-05	8.17455e-14	0
3.45065e-05	1.17168e-13	0
3.45065e-05	1.67941e-13	0
3.45065e-05	2.40714e-13	0
3.45065e-05	3.45023e-13	0
3.45065e-05	4.94531e-13	0
3.45065e-05	7.08826e-13	0
3.45065e-05	1.01598e-12	0
3.45065e-05	1.45624e-12	0
3.45065e-05	2.08727e-12	0
3.45065e-05	2.99174e-12	0
3.45065e-05	4.28815e-12	1.84852e+13
3.45065e-05	6.14633e-12	1.87002e+14
3.45065e-05	8.80971e-12	0
3.45065e-05	1.26272e-11	0
3.45065e-05	1.8099e-11	0
3.45065e-05	2.59418e-11	1.22224e+13
3.45065e-05	3.71831e-11	0
3.45065e-05	5.32957e-11	0
3.45065e-05	7.63902e-11	0
3.45065e-05	1.09492e-10	0
3.45065e-05	1.56939e-10	0
3.45065e-05	2.24945e-10	3.52386e+11
3.45065e-05	3.2242e-10	0
3.45065e-05	4.62134e-10	0
3.45065e-05	6.6239e-10	0
3.45065e-05	9.49423e-10	0
3.45065e-05	1.36084e-09	0
3.45065e-05	1.95053e-09	0
3.45065e-05	2.79575e-09	0
3.45065e-05	4.00723e-09	0
3.45065e-05	5.74368e-09	0
3.45065e-05	8.23258e-09	0
3.45065e-05	1.18e-08	6.71758e+09
4.94592e-05	2.57589e-16	0
4.94592e-05	3.6921e-16	0
4.94592e-05	5.29199e-16	0
4.94592e-05	7.58517e-16	0
4.94592e-05	1.0872e-15	0
4.94592e-05	1.55832e-15	0
4.94592e-05	2.23359e-15	0
4.94592e-05	3.20147e-15	0
4.94592e-05	4.58876e-15	0
4.94592e-05	6.57721e-15	0
4.94592e-05	9.4273e-15	0
4.94592e-05	1.35124e-14	0
4.94592e-05	1.93678e-14	0
4.94592e-05	2.77604e-14	0
4.94592e-05	3.97898e-14	0
4.94592e-05	5.70319e-14	3.88699e+18
4.94592e-05	8.17455e-14	0
4.94592e-05	1.17168e-13	0
4.94592e-05	1.67941e-13	0
4.94592e-05	2.40714e-13	0
4.94592e-05	3.45023e-13	0
4.94592e-05	4.94531e-13	0
4.94592e-05	7.08826e-13	0
4.94592e-05	1.01598e-12	0
4.94592e-05	1.45624e-12	0
4.94592e-05	2.08727e-12	0
4.94592e-05	2.99174e-12	0
4.94592e-05	4.28815e-12	3.86901e+13
4.94592e-05	6.14633e-12	3.14921e+14
4.94592e-05	8.80971e-12	0
4.94592e-05	1.26272e-11	0
4.94592e-05	1.8099e-11	0
4.94592e-05	2.59418e-11	7.46134e+12
4.94592e-05	3.71831e-11	0
4.94592e-05	5.32957e-11	0
4.94592e-05	7.63902e-11	0
4.94592e-05	1.09492e-10	0
4.94592e-05	1.56939e-10	0
4.94592e-05	2.24945e-10	1.22926e+11
4.94592e-05	3.2242e-10	0
4.94592e-05	4.62134e-10	0
4.94592e-05	6.6239e-10	0
4.94592e-05	9.49423e-10	0
4.94592e-05	1.36084e-09	0
4.94592e-05	1.95053e-09	0
4.94592e-05	2.79575e-09	0
4.94592e-05	4.00723e-09	0
4.94592e-05	5.74368e-09	0
4.94592e-05	8.23258e-09	0
4.94592e-05	1.18e-08	2.34335e+09
7.08913e-05	2.57589e-16	0
7.08913e-05	3.6921e-16	0
7.08913e-05	5.29199e-16	0
7.08913e-05	7.58517e-16	0
7.08913e-05	1.0872e-15	0
7.08913e-05	1.55832e-15	0
7.08913e-05	2.23359e-15	0
7.08913e-05	3.20147e-15	0
7.08913e-05	4.58876e-15	0
7.08913e-05	6.57721e-15	0
7.08913e-05	9.4273e-15	0
7.08913e-05	1.35124e-14	0
7.08913e-05	1.93678e-14	0
7.08913e-05	2.77604e-14	0
7.08913e-05	3.97898e-14	0
7.08913e-05	5.70319e-14	3.40733e+18
7.08913e-05	8.17455e-14	0
7.08913e-05	1.17168e-13	0
7.08913e-05	1.67941e-13	0
7.08913e-05	2.40714e-13	0
7.08913e-05	3.45023e-13	0
7.08913e-05	4.94531e-13	0
7.08913e-05	7.08826e-13	0
7.08913e-05	1.01598e-12	0
7.08913e-05	1.45624e-12	0
7.08913e-05	2.08727e-12	0
7.08913e-05	2.99174e-12	0
7.08913e-05	4.28815e-12	6.7483e+13
7.08913e-05	6.14633e-12	4.17454e+14
7.08913e-05	8.80971e-12	0
7.08913e-05	1.26272e-11	0
7.08913e-05	1.8099e-11	0
7.08913e-05	2.59418e-11	1.93351e+13
7.08913e-05	3.71831e-11	0
7.08913e-05	5.32957e-11	0
7.08913e-05	7.63902e-11	0
7.08913e-05	1.09492e-10	0
7.08913e-05	1.56939e-10	0
7.08913e-05	2.24945e-10	3.43049e+11
7.08913e-05	3.2242e-10	0
7.08913e-05	4.62134e-10	0
7.08913e-05	6.6239e-10	0
7.08913e-05	9.49423e-10	0
7.08913e-05	1.36084e-09	0
7.08913e-05	1.95053e-09	0
7.08913e-05	2.79575e-09	0
7.08913e-05	4.00723e-09	0
7.08913e-05	5.74368e-09	0
7.08913e-05	8.23258e-09	0
7.08913e-05	1.18e-08	1.6349e+09
0.000101611	2.57589e-16	0
0.000101611	3.6921e-16	0
0.000101611	5.29199e-16	0
0.000101611	7.58517e-16	0
0.000101611	1.0872e-15	0
0.000101611	1.55832e-15	0
0.000101611	2.23359e-15	0
0.000101611	3.20147e-15	0
0.000101611	4.58876e-15	0
0.000101611	6.57721e-15	0
0.000101611	9.4273e-15	0
0.000101611	1.35124e-14	0
0.000101611	1.93678e-14	0
0.000101611	2.77604e-14	0
0.000101611	3.97898e-14	0
0.000101611	5.70319e-14	2.33237e+18
0.000101611	8.17455e-14	0
0.000101611	1.17168e-13	0
0.000101611	1.67941e-13	0
0.000101611	2.40714e-13	0
0.000101611	3.45023e-13	0
0.000101611	4.94531e-13	0
0.000101611	7.08826e-13	0
0.000101611	1.01598e-12	0
0.000101611	1.45624e-12	0
0.000101611	2.08727e-12	0
0.000101611	2.99174e-12	0
0.000101611	4.28815e-12	8.16075e+13
0.000101611	6.14633e-12	6.00014e+14
0.000101611	8.80971e-12	0
0.000101611	1.26272e-11	0
0.000101611	1.8099e-11	7.43657e+11
0.000101611	2.59418e-11	3.26864e+13
0.000101611	3.71831e-11	0
0.000101611	5.32957e-11	0
0.000101611	7.63902e-11	0
0.000101611	1.09492e-10	0
0.000101611	1.56939e-10	0
0.000101611	2.24945e-10	2.39338e+11
0.000101611	3.2242e-10	0
0.000101611	4.62134e-10	0
0.000101611	6.6239e-10	0
0.000101611	9.49423e-10	0
0.000101611	1.36084e-09	0
0.000101611	1.95053e-09	0
0.000101611	2.79575e-09	0
0.000101611	4.00723e-09	0
0.000101611	5.74368e-09	0
0.000101611	8.23258e-09	0
0.000101611	1.18e-08	2.28126e+09
0.000145641	2.57589e-16	0
0.000145641	3.6921e-16	0
0.000145641	5.29199e-16	0
0.000145641	7.58517e-16	0
0.000145641	1.0872e-15	0
0.000145641	1.55832e-15	0
0.000145641	2.23359e-15	0
0.000145641	3.20147e-15	0
0.000145641	4.58876e-15	0
0.000145641	6.57721e-15	0
0.000145641	9.4273e-15	0
0.000145641	1.35124e-14	0
0.000145641	1.93678e-14	0
0.000145641	2.77604e-14	0
0.000145641	3.97898e-14	0
0.000145641	5.70319e-14	1.06496e+18
0.000145641	8.17455e-14	0
0.000145641	1.17168e-13	0
0.000145641	1.67941e-13	0
0.000145641	2.40714e-13	0
0.000145641	3.45023e-13	0
0.000145641	4.94531e-13	0
0.000145641	7.08826e-13	0
0.000145641	1.01598e-12	0
0.000145641	1.45624e-12	0
0.000145641	2.08727e-12	0
0.000145641	2.99174e-12	0
0.000145641	4.28815e-12	9.63526e+13
0.000145641	6.14633e-12	9.71677e+14
0.000145641	8.80971e-12	0
0.000145641	1.26272e-11	0
0.000145641	1.8099e-11	2.59416e+12
0.000145641	2.59418e-11	6.55178e+13
0.000145641	3.71831e-11	0
0.000145641	5.32957e-11	0
0.000145641	7.63902e-11	0
0.000145641	1.09492e-10	0
0.000145641	1.56939e-10	0
0.000145641	2.24945e-10	0
0.000145641	3.2242e-10	0
0.000145641	4.62134e-10	0
0.000145641	6.6239e-10	0
0.000145641	9.49423e-10	0
0.000145641	1.36084e-09	0
0.000145641	1.95053e-09	0
0.000145641	2.79575e-09	0
0.000145641	4.00723e-09	0
0.000145641	5.74368e-09	0
0.000145641	8.23258e-09	0
0.000145641	1.18e-08	2.38737e+09
0.000208752	2.57589e-16	0
0.000208752	3.6921e-16	0
0.000208752	5.29199e-16	0
0.000208752	7.58517e-16	0
0.000208752	1.0872e-15	0
0.000208752	1.55832e-15	0
0.000208752	2.23359e-15	0
0.000208752	3.20147e-15	0
0.000208752	4.58876e-15	0
0.000208752	6.57721e-15	0
0.000208752	9.4273e-15	0
0.000208752	1.35124e-14	0
0.000208752	1.93678e-14	0
0.000208752	2.77604e-14	0
0.000208752	3.97898e-14	0
0.000208752	5.70319e-14	3.27847e+17
0.000208752	8.17455e-14	0
0.000208752	1.17168e-13	0
0.000208752	1.67941e-13	0
0.000208752	2.40714e-13	0
0.000208752	3.45023e-13	0
0.000208752	4.94531e-13	0
0.000208752	7.08826e-13	0
0.000208752	1.01598e-12	0
0.000208752	1.45624e-12	0
0.000208752	2.08727e-12	0
0.000208752	2.99174e-12	0
0.000208752	4.28815e-12	7.18063e+13
0.000208752	6.14633e-12	1.58607e+15
0.000208752	8.80971e-12	0
0.000208752	1.26272e-11	0
0.000208752	1.8099e-11	3.61977e+11
0.000208752	2.59418e-11	1.14149e+14
0.000208752	3.71831e-11	0
0.000208752	5.32957e-11	0
0.000208752	7.63902e-11	0
0.000208752	1.09492e-10	0
0.000208752	1.56939e-10	0
0.000208752	2.24945e-10	1.16498e+11
0.000208752	3.2242e-10	0
0.000208752	4.62134e-10	0
0.000208752	6.6239e-10	0
0.000208752	9.49423e-10	0
0.000208752	1.36084e-09	0
0.000208752	1.95053e-09	0
0.000208752	2.79575e-09	4.68669e+09
0.000208752	4.00723e-09	0
0.000208752	5.74368e-09	0
0.000208752	8.23258e-09	0
0.000208752	1.18e-08	0
0.000299211	2.57589e-16	0
0.000299211	3.6921e-16	0
0.000299211	5.29199e-16	0
0.000299211	7.58517e-16	0
0.000299211	1.0872e-15	0
0.000299211	1.55832e-15	0
0.000299211	2.23359e-15	0
0.000299211	3.20147e-15	0
0.000299211	4.58876e-15	0
0.000299211	6.57721e-15	0
0.000299211	9.4273e-15	0
0.000299211	1.35124e-14	0
0.000299211	1.93678e-14	0
0.000299211	2.77604e-14	0
0.000299211	3.97898e-14	0
0.000299211	5.70319e-14	7.0687e+16
0.000299211	8.17455e-14	0
0.000299211	1.17168e-13	0
0.000299211	1.67941e-13	0
0.000299211	2.40714e-13	0
0.000299211	3.45023e-13	0
0.000299211	4.94531e-13	0
0.000299211	7.08826e-13	0
0.000299211	1.01598e-12	0
0.000299211	1.45624e-12	0
0.000299211	2.08727e-12	0
0.000299211	2.99174e-12	0
0.000299211	4.28815e-12	9.69974e+13
0.000299211	6.14633e-12	2.38119e+15
0.000299211	8.80971e-12	0
0.000299211	1.26272e-11	0
0.000299211	1.8099e-11	0
0.000299211	2.59418e-11	1.42893e+14
0.000299211	3.71831e-11	0
0.000299211	5.32957e-11	0
0.000299211	7.63902e-11	0
0.000299211	1.09492e-10	0
0.000299211	1.56939e-10	0
0.000299211	2.24945e-10	1.62556e+11
0.000299211	3.2242e-10	0
0.000299211	4.62134e-10	0
0.000299211	6.6239e-10	0
0.000299211	9.49423e-10	0
0.000299211	1.36084e-09	0
0.000299211	1.95053e-09	0
0.000299211	2.79575e-09	0
0.000299211	4.00723e-09	0
0.000299211	5.74368e-09	0
0.000299211	8.23258e-09	0
0.000299211	1.18e-08	2.71147e+09
0.000428867	2.57589e-16	0
0.000428867	3.6921e-16	0
0.000428867	5.29199e-16	0
0.000428867	7.58517e-16	0
0.000428867	1.0872e-15	0
0.000428867	1.55832e-15	0
0.000428867	2.23359e-15	0
0.000428867	3.20147e-15	0
0.000428867	4.58876e-15	0
0.000428867	6.57721e-15	0
0.000428867	9.4273e-15	0
0.000428867	1.35124e-14	0
0.000428867	1.93678e-14	0
0.000428867	2.77604e-14	0
0.000428867	3.97898e-14	0
0.000428867	5.70319e-14	7.6603e+15
0.000428867	8.17455e-14	0
0.000428867	1.17168e-13	0
0.000428867	1.67941e-13	0
0.000428867	2.40714e-13	0
0.000428867	3.45023e-13	0
0.000428867	4.94531e-13	0
0.000428867	7.08826e-13	0
0.000428867	1.01598e-12	0
0.000428867	1.45624e-12	0
0.000428867	2.08727e-12	0
0.000428867	2.99174e-12	0
0.000428867	4.28815e-12	1.16011e+14
0.000428867	6.14633e-12	3.50419e+15
0.000428867	8.80971e-12	0
0.000428867	1.26272e-11	0
0.000428867	1.8099e-11	3.52386e+11
0.000428867	2.59418e-11	2.04917e+14
0.000428867	3.71831e-11	0
0.000428867	5.32957e-11	0
0.000428867	7.63902e-11	0
0.000428867	1.09492e-10	0
0.000428867	1.56939e-10	0
0.000428867	2.24945e-10	2.12646e+11
0.000428867	3.2242e-10	0
0.000428867	4.62134e-10	0
0.000428867	6.6239e-10	0
0.000428867	9.49423e-10	0
0.000428867	1.36084e-09	0
0.000428867	1.95053e-09	0
0.000428867	2.79575e-09	2.28126e+09
0.000428867	4.00723e-09	0
0.000428867	5.74368e-09	0
0.000428867	8.23258e-09	0
0.000428867	1.18e-08	3.24296e+09
0.000614708	2.57589e-16	0
0.000614708	3.6921e-16	0
0.000614708	5.29199e-16	0
0.000614708	7.58517e-16	0
0.000614708	1.0872e-15	0
0.000614708	1.55832e-15	0
0.000614708	2.23359e-15	0
0.000614708	3.20147e-15	0
0.000614708	4.58876e-15	0
0.000614708	6.57721e-15	0
0.000614708	9.4273e-15	0
0.000614708	1.35124e-14	0
0.000614708	1.93678e-14	0
0.000614708	2.77604e-14	0
0.000614708	3.97898e-14	0
0.000614708	5.70319e-14	0
0.000614708	8.17455e-14	0
0.000614708	1.17168e-13	0
0.000614708	1.67941e-13	0
0.000614708	2.40714e-13	0
0.000614708	3.45023e-13	0
0.000614708	4.94531e-13	0
0.000614708	7.08826e-13	0
0.000614708	1.01598e-12	0
0.000614708	1.45624e-12	0
0.000614708	2.08727e-12	0
0.000614708	2.99174e-12	0
0.000614708	4.28815e-12	1.12587e+14
0.000614708	6.14633e-12	6.31541e+15
0.000614708	8.80971e-12	0
0.000614708	1.26272e-11	0