6.41329	5.0396	3.86329	18.7388	8.42371	5.89748
