7.49426	5.05688	3.66075	20.4863	8.29051	4.51648
