7.19074	5.08576	3.67174	21.5683	8.48209	5.68389
