7.43262	5.06006	3.67988	20.4795	8.32316	4.62522
