2.43868	4.99786	3.96641	2.99321	8.37455	5.95002
