3.02782	5.00046	3.96213	4.54482	8.37425	5.93214
